
1506 atoms
992 bonds
496 angles
0 dihedrals
0 impropers

4 atom types
1 bond types
1 angle types

0 25.0000 xlo xhi
0 25.0000 ylo yhi
0 25.0000 zlo zhi

Masses

1 6.941
2 35.453
3 15.9994
4 1.0079

Atoms
#@INCLUDE 'coords'
1 1 1 1.0000 14.20667 2.32833 17.89833
2 2 1 1.0000 23.87233 16.66933 14.90800
3 3 1 1.0000 23.79467 2.15433 3.97367
4 4 1 1.0000 5.30733 0.52433 2.26233
5 5 1 1.0000 15.66767 0.08700 9.62267
6 6 1 1.0000 12.18367 5.59067 17.49967
7 7 1 1.0000 10.58267 16.40133 16.08167
8 8 1 1.0000 0.51867 19.98633 12.20900
9 9 1 1.0000 19.69333 5.57967 24.68667
10 10 2 -1.0000 18.88167 0.13200 22.07400
11 11 2 -1.0000 4.84567 19.45233 0.65600
12 12 2 -1.0000 23.33033 0.22467 13.25967
13 13 2 -1.0000 2.06567 20.79600 21.11333
14 14 2 -1.0000 1.33467 4.63600 24.32467
15 15 2 -1.0000 20.14733 14.15167 0.52500
16 16 2 -1.0000 19.80900 14.10400 9.97067
17 17 2 -1.0000 16.75933 20.44800 7.10967
18 18 2 -1.0000 8.70733 0.70600 15.84867
19 19 3 -0.8476 21.92800 22.33700 16.44700
20 19 4 0.4238 22.02300 21.34900 16.57100
21 19 4 0.4238 21.25700 22.69100 17.09900
22 20 3 -0.8476 8.97200 5.34200 18.87900
23 20 4 0.4238 9.59300 6.10400 18.69400
24 20 4 0.4238 9.04600 5.07800 19.84000
25 21 3 -0.8476 17.18500 6.84000 21.30200
26 21 4 0.4238 17.18000 7.15900 20.35400
27 21 4 0.4238 16.38800 6.25900 21.46300
28 22 3 -0.8476 12.19600 21.81700 8.83500
29 22 4 0.4238 12.78400 22.53300 8.45900
30 22 4 0.4238 11.77500 21.30600 8.08600
31 23 3 -0.8476 8.08600 16.88400 15.93400
32 23 4 0.4238 7.77900 17.78100 16.25200
33 23 4 0.4238 7.60000 16.64300 15.09400
34 24 3 -0.8476 5.98200 10.76100 5.97700
35 24 4 0.4238 5.32500 11.51500 5.96400
36 24 4 0.4238 5.50300 9.90400 6.16800
37 25 3 -0.8476 14.44800 10.81300 11.25600
38 25 4 0.4238 15.37200 10.68200 11.61400
39 25 4 0.4238 14.29500 11.78500 11.07500
40 26 3 -0.8476 24.56200 18.68600 6.04300
41 26 4 0.4238 25.31200 18.61800 5.38500
42 26 4 0.4238 24.32600 19.64800 6.18100
43 27 3 -0.8476 12.66000 23.25500 14.39000
44 27 4 0.4238 13.59600 22.92000 14.27900
45 27 4 0.4238 12.15600 22.63900 14.99600
46 28 3 -0.8476 16.57000 7.05800 12.53200
47 28 4 0.4238 17.28600 7.62100 12.94500
48 28 4 0.4238 15.82400 6.93500 13.18600
49 29 3 -0.8476 0.56300 23.51300 3.34100
50 29 4 0.4238 1.11500 22.80500 2.90000
51 29 4 0.4238 0.32100 24.21400 2.67000
52 30 3 -0.8476 17.91200 15.03000 6.10400
53 30 4 0.4238 18.08100 16.00600 6.24000
54 30 4 0.4238 18.30200 14.74400 5.22900
55 31 3 -0.8476 21.86300 7.39100 1.42600
56 31 4 0.4238 21.46200 8.30600 1.37500
57 31 4 0.4238 21.13300 6.70900 1.47400
58 32 3 -0.8476 18.63200 3.85600 7.34300
59 32 4 0.4238 18.24700 4.77600 7.41700
60 32 4 0.4238 17.89700 3.18100 7.40700
61 33 3 -0.8476 18.77000 8.50000 3.35600
62 33 4 0.4238 19.56300 7.98900 3.68600
63 33 4 0.4238 18.68500 8.38000 2.36700
64 34 3 -0.8476 3.54800 17.43400 6.38400
65 34 4 0.4238 3.86800 17.02200 5.53100
66 34 4 0.4238 3.43900 18.42000 6.25700
67 35 3 -0.8476 6.97500 14.31400 5.71000
68 35 4 0.4238 7.10100 15.09400 5.09700
69 35 4 0.4238 7.47700 14.47300 6.56000
70 36 3 -0.8476 21.84100 15.00300 23.39800
71 36 4 0.4238 21.90200 14.91800 24.39300
72 36 4 0.4238 21.31300 14.23700 23.03000
73 37 3 -0.8476 9.92600 12.00400 0.72900
74 37 4 0.4238 10.41700 12.84800 0.94600
75 37 4 0.4238 9.33300 12.15700 -0.06100
76 38 3 -0.8476 19.85800 23.24700 18.03500
77 38 4 0.4238 19.96000 22.87900 18.95900
78 38 4 0.4238 18.94600 23.64200 17.93300
79 39 3 -0.8476 21.22900 11.37200 21.02000
80 39 4 0.4238 20.26800 11.19800 20.80300
81 39 4 0.4238 21.74300 10.51500 20.96700
82 40 3 -0.8476 10.73400 10.27200 4.58600
83 40 4 0.4238 10.77000 9.86200 5.49700
84 40 4 0.4238 11.61700 10.15000 4.13100
85 41 3 -0.8476 5.87400 5.93600 18.51800
86 41 4 0.4238 5.61800 5.94300 17.55100
87 41 4 0.4238 6.85700 5.77500 18.60100
88 42 3 -0.8476 12.32300 16.78900 4.72600
89 42 4 0.4238 11.66400 17.12700 4.05300
90 42 4 0.4238 13.24300 16.82100 4.33600
91 43 3 -0.8476 5.39200 1.86900 15.10000
92 43 4 0.4238 5.19700 1.41900 15.97200
93 43 4 0.4238 5.46900 1.18000 14.38000
94 44 3 -0.8476 0.78400 19.22600 18.86900
95 44 4 0.4238 1.16600 19.76500 19.61900
96 44 4 0.4238 -0.00400 19.70400 18.48200
97 45 3 -0.8476 21.34300 8.48600 21.73700
98 45 4 0.4238 20.93000 8.98500 22.49900
99 45 4 0.4238 22.21900 8.10000 22.02800
100 46 3 -0.8476 20.32300 3.51100 13.72700
101 46 4 0.4238 19.45300 3.94700 13.49500
102 46 4 0.4238 20.18300 2.52700 13.84000
103 47 3 -0.8476 13.93000 7.86500 18.55800
104 47 4 0.4238 13.59600 8.04200 19.48400
105 47 4 0.4238 14.09000 8.73400 18.08900
106 48 3 -0.8476 14.83800 1.00500 21.15300
107 48 4 0.4238 14.51000 1.15200 20.22000
108 48 4 0.4238 15.60500 0.36400 21.13900
109 49 3 -0.8476 23.53000 24.71100 1.08300
110 49 4 0.4238 23.06700 24.62300 0.20200
111 49 4 0.4238 24.38400 25.21800 0.96200
112 50 3 -0.8476 11.01800 12.60600 5.39800
113 50 4 0.4238 10.77900 11.69300 5.06800
114 50 4 0.4238 10.34600 13.26800 5.06700
115 51 3 -0.8476 16.42500 14.60100 3.33700
116 51 4 0.4238 16.76100 13.73600 3.71100
117 51 4 0.4238 17.09500 14.96700 2.69100
118 52 3 -0.8476 14.27400 14.29100 17.33800
119 52 4 0.4238 13.37700 14.53500 17.70600
120 52 4 0.4238 14.90800 15.05200 17.47500
121 53 3 -0.8476 22.35400 16.90900 8.54900
122 53 4 0.4238 21.68800 17.65100 8.47300
123 53 4 0.4238 23.19000 17.16100 8.06100
124 54 3 -0.8476 18.96600 20.36600 16.89500
125 54 4 0.4238 19.02900 21.28500 16.50700
126 54 4 0.4238 18.81300 19.70400 16.16000
127 55 3 -0.8476 19.79900 8.86500 9.53500
128 55 4 0.4238 19.44500 9.49000 8.84000
129 55 4 0.4238 20.57600 8.35800 9.16300
130 56 3 -0.8476 3.47700 13.72200 17.67700
131 56 4 0.4238 4.16900 13.03900 17.91100
132 56 4 0.4238 3.04100 13.47200 16.81300
133 57 3 -0.8476 2.62500 13.21000 3.85800
134 57 4 0.4238 3.24400 12.84500 4.55400
135 57 4 0.4238 2.18000 12.45400 3.37800
136 58 3 -0.8476 21.18900 14.73900 7.96100
137 58 4 0.4238 21.64900 14.24200 7.22500
138 58 4 0.4238 21.69900 15.57300 8.16900
139 59 3 -0.8476 1.86000 7.95200 7.95900
140 59 4 0.4238 2.25800 7.23500 8.53000
141 59 4 0.4238 0.97200 7.64800 7.61200
142 60 3 -0.8476 10.14400 24.09600 4.00700
143 60 4 0.4238 9.96800 25.02900 3.69300
144 60 4 0.4238 10.23500 24.09100 5.00300
145 61 3 -0.8476 23.84200 7.41200 22.95400
146 61 4 0.4238 23.61100 6.69800 23.61400
147 61 4 0.4238 24.10100 8.24600 23.44200
148 62 3 -0.8476 2.75000 12.47500 11.56300
149 62 4 0.4238 2.72000 12.40300 10.56600
150 62 4 0.4238 3.48400 11.89400 11.91600
151 63 3 -0.8476 15.12300 6.62800 15.83700
152 63 4 0.4238 14.51400 6.37900 16.59000
153 63 4 0.4238 15.99800 6.15600 15.94600
154 64 3 -0.8476 9.25300 15.29800 22.71500
155 64 4 0.4238 8.79000 14.68000 22.07900
156 64 4 0.4238 9.32900 16.20600 22.30200
157 65 3 -0.8476 21.34300 9.08000 5.03300
158 65 4 0.4238 21.17900 9.84700 5.65200
159 65 4 0.4238 20.61100 8.40700 5.13500
160 66 3 -0.8476 18.80900 3.25000 3.84600
161 66 4 0.4238 18.00100 2.88400 4.30800
162 66 4 0.4238 19.61600 3.10400 4.41900
163 67 3 -0.8476 13.90700 2.49000 10.85100
164 67 4 0.4238 13.11100 2.89300 11.30200
165 67 4 0.4238 14.12700 3.01700 10.03000
166 68 3 -0.8476 0.51300 7.89600 14.35000
167 68 4 0.4238 -0.47400 8.04700 14.29700
168 68 4 0.4238 0.87900 7.75300 13.43000
169 69 3 -0.8476 19.18400 8.30800 11.96000
170 69 4 0.4238 20.09100 8.17100 12.35700
171 69 4 0.4238 19.27400 8.51800 10.98700
172 70 3 -0.8476 8.38400 21.78900 4.79700
173 70 4 0.4238 7.94300 22.19600 5.59700
174 70 4 0.4238 9.14800 22.36500 4.50800
175 71 3 -0.8476 18.49500 10.31300 7.63200
176 71 4 0.4238 17.87700 10.80400 8.24500
177 71 4 0.4238 17.96100 9.76000 6.99200
178 72 3 -0.8476 0.53000 12.40300 20.00200
179 72 4 0.4238 1.20000 12.21200 20.71900
180 72 4 0.4238 0.37700 11.57700 19.45900
181 73 3 -0.8476 19.86200 7.59200 19.64100
182 73 4 0.4238 20.30400 7.76800 20.52100
183 73 4 0.4238 20.54600 7.28500 18.98000
184 74 3 -0.8476 2.24000 22.53400 5.76000
185 74 4 0.4238 1.87000 23.15300 5.06700
186 74 4 0.4238 1.58100 21.80500 5.94200
187 75 3 -0.8476 6.24400 15.73200 23.85200
188 75 4 0.4238 6.08200 15.41600 22.91700
189 75 4 0.4238 5.97700 15.01700 24.49700
190 76 3 -0.8476 12.74100 10.99300 20.86500
191 76 4 0.4238 13.51400 11.43900 20.41300
192 76 4 0.4238 11.91200 11.53100 20.71600
193 77 3 -0.8476 9.53300 22.94400 16.33500
194 77 4 0.4238 8.85000 23.12300 15.62700
195 77 4 0.4238 10.22900 22.32200 15.97600
196 78 3 -0.8476 9.42500 17.68400 21.56200
197 78 4 0.4238 8.54900 17.97900 21.94600
198 78 4 0.4238 9.30600 17.45700 20.59600
199 79 3 -0.8476 18.98700 5.18000 11.74300
200 79 4 0.4238 18.81400 6.09200 12.11500
201 79 4 0.4238 19.59500 5.25200 10.95300
202 80 3 -0.8476 8.20900 8.21800 20.82400
203 80 4 0.4238 8.85800 7.98100 21.54700
204 80 4 0.4238 7.41200 7.61700 20.88100
205 81 3 -0.8476 20.11500 19.04400 2.84900
206 81 4 0.4238 20.00500 20.01700 2.64400
207 81 4 0.4238 20.88400 18.67800 2.32500
208 82 3 -0.8476 12.21200 23.99900 18.19200
209 82 4 0.4238 12.36900 24.87800 18.64200
210 82 4 0.4238 11.45800 23.52300 18.64500
211 83 3 -0.8476 22.54900 11.61400 9.28500
212 83 4 0.4238 22.46600 12.55300 9.61800
213 83 4 0.4238 22.17800 11.55400 8.35900
214 84 3 -0.8476 9.85400 6.20600 0.08400
215 84 4 0.4238 8.88100 6.41000 -0.02600
216 84 4 0.4238 10.00400 5.76500 0.96900
217 85 3 -0.8476 17.63500 22.21000 9.56200
218 85 4 0.4238 16.78800 21.68000 9.61100
219 85 4 0.4238 18.39300 21.65900 9.90900
220 86 3 -0.8476 1.20400 6.67700 22.03000
221 86 4 0.4238 0.40200 6.38900 21.50500
222 86 4 0.4238 1.53100 5.91200 22.58400
223 87 3 -0.8476 19.58400 21.71300 2.62800
224 87 4 0.4238 19.82400 22.58300 3.05900
225 87 4 0.4238 19.51200 21.83900 1.63900
226 88 3 -0.8476 5.72400 2.75900 11.29700
227 88 4 0.4238 6.08400 2.11700 10.62000
228 88 4 0.4238 6.46300 3.34600 11.62700
229 89 3 -0.8476 16.01500 20.74800 16.29500
230 89 4 0.4238 16.70600 20.43300 16.94500
231 89 4 0.4238 15.23100 21.11800 16.79400
232 90 3 -0.8476 10.83600 15.27600 13.82700
233 90 4 0.4238 11.58800 15.11200 13.18800
234 90 4 0.4238 10.31800 14.43100 13.95600
235 91 3 -0.8476 2.60300 23.09100 9.12400
236 91 4 0.4238 2.81300 23.89800 8.57200
237 91 4 0.4238 3.45300 22.68500 9.45800
238 92 3 -0.8476 14.27000 5.87100 22.09900
239 92 4 0.4238 14.20100 5.42200 21.20800
240 92 4 0.4238 13.89600 6.79600 22.03600
241 93 3 -0.8476 11.89400 12.98100 12.32500
242 93 4 0.4238 12.51100 13.76800 12.32200
243 93 4 0.4238 11.02400 13.23700 11.90400
244 94 3 -0.8476 11.93000 8.67000 13.68900
245 94 4 0.4238 12.71200 8.10600 13.42500
246 94 4 0.4238 11.45900 8.24500 14.46300
247 95 3 -0.8476 16.74500 8.48600 5.82400
248 95 4 0.4238 17.36600 8.44000 5.04200
249 95 4 0.4238 16.04900 9.18500 5.65700
250 96 3 -0.8476 1.74800 24.81900 11.91200
251 96 4 0.4238 1.96000 25.66800 11.42800
252 96 4 0.4238 2.59100 24.42400 12.27600
253 97 3 -0.8476 21.87600 17.55300 22.21200
254 97 4 0.4238 22.68300 17.62800 21.62600
255 97 4 0.4238 21.93000 16.70900 22.74500
256 98 3 -0.8476 20.36200 19.08100 8.48500
257 98 4 0.4238 20.81100 19.52900 7.71200
258 98 4 0.4238 20.15400 19.75900 9.18900
259 99 3 -0.8476 8.75900 10.73800 2.78500
260 99 4 0.4238 9.47700 10.49200 3.43700
261 99 4 0.4238 9.17500 10.99100 1.91200
262 100 3 -0.8476 7.47900 14.24700 20.80500
263 100 4 0.4238 6.59700 14.28600 21.27500
264 100 4 0.4238 7.40200 13.65800 20.00000
265 101 3 -0.8476 5.98500 7.19600 10.50100
266 101 4 0.4238 6.57100 6.59500 9.95800
267 101 4 0.4238 6.37600 7.30400 11.41600
268 102 3 -0.8476 3.74400 15.61100 10.43800
269 102 4 0.4238 3.92400 14.97900 11.19200
270 102 4 0.4238 2.91300 16.13300 10.63000
271 103 3 -0.8476 14.30600 5.04700 19.60300
272 103 4 0.4238 14.40600 5.93100 19.14500
273 103 4 0.4238 14.94100 4.38900 19.20000
274 104 3 -0.8476 4.96100 4.39400 8.46300
275 104 4 0.4238 5.01300 4.16300 7.49100
276 104 4 0.4238 4.20600 5.03200 8.61400
277 105 3 -0.8476 21.43400 21.00600 6.50000
278 105 4 0.4238 22.01300 20.67600 5.75400
279 105 4 0.4238 21.73900 21.91600 6.78100
280 106 3 -0.8476 0.90300 18.25900 8.60600
281 106 4 0.4238 1.34800 18.07000 9.48100
282 106 4 0.4238 0.94500 19.24000 8.41600
283 107 3 -0.8476 10.67200 22.42700 1.69300
284 107 4 0.4238 11.57700 22.06300 1.91100
285 107 4 0.4238 10.37600 23.04500 2.42100
286 108 3 -0.8476 9.62600 22.22800 12.97000
287 108 4 0.4238 10.05000 21.32600 13.05500
288 108 4 0.4238 10.05000 22.72600 12.21300
289 109 3 -0.8476 4.23000 20.45500 21.94000
290 109 4 0.4238 4.49200 19.55800 22.29400
291 109 4 0.4238 5.03700 20.91800 21.57400
292 110 3 -0.8476 12.37600 2.66300 21.73100
293 110 4 0.4238 12.64700 2.90300 22.66300
294 110 4 0.4238 13.05200 2.03900 21.33700
295 111 3 -0.8476 6.29600 24.76900 17.13300
296 111 4 0.4238 7.03700 24.99200 17.76600
297 111 4 0.4238 6.02200 23.81600 17.26400
298 112 3 -0.8476 7.22900 19.56400 20.20500
299 112 4 0.4238 7.34900 20.10100 19.37000
300 112 4 0.4238 6.55300 18.84500 20.04500
301 113 3 -0.8476 13.46100 19.38100 9.80000
302 113 4 0.4238 13.48200 20.21000 10.35900
303 113 4 0.4238 12.55300 19.27500 9.39500
304 114 3 -0.8476 14.37800 4.23100 8.71100
305 114 4 0.4238 13.65600 4.88000 8.47200
306 114 4 0.4238 15.19800 4.73200 8.98900
307 115 3 -0.8476 7.00700 6.83000 13.02700
308 115 4 0.4238 7.27200 6.03300 13.56900
309 115 4 0.4238 7.58400 7.60800 13.27400
310 116 3 -0.8476 0.85600 9.86800 18.98400
311 116 4 0.4238 0.91800 9.51500 19.91800
312 116 4 0.4238 1.23100 9.19400 18.34800
313 117 3 -0.8476 13.69100 10.62700 23.42700
314 117 4 0.4238 13.87200 11.53800 23.79900
315 117 4 0.4238 13.36400 10.71100 22.48600
316 118 3 -0.8476 3.65200 1.02500 4.63200
317 118 4 0.4238 3.56300 1.97300 4.93900
318 118 4 0.4238 3.79000 1.00700 3.64200
319 119 3 -0.8476 5.33900 17.64000 19.70800
320 119 4 0.4238 4.74000 18.39400 19.43600
321 119 4 0.4238 5.35000 16.94700 18.98800
322 120 3 -0.8476 6.81300 14.08600 13.12300
323 120 4 0.4238 5.88100 14.38400 13.33100
324 120 4 0.4238 7.41100 14.88400 13.05800
325 121 3 -0.8476 21.65800 20.55700 13.27500
326 121 4 0.4238 22.16300 20.55600 14.13700
327 121 4 0.4238 21.03200 19.77800 13.25400
328 122 3 -0.8476 9.48300 2.70600 13.85900
329 122 4 0.4238 10.39300 3.07100 14.05900
330 122 4 0.4238 9.31400 1.90200 14.42900
331 123 3 -0.8476 10.08500 11.40200 9.20900
332 123 4 0.4238 9.32000 10.92400 8.77800
333 123 4 0.4238 10.42200 10.86400 9.98200
334 124 3 -0.8476 2.10300 22.76900 16.40600
335 124 4 0.4238 2.11900 22.27500 15.53700
336 124 4 0.4238 1.22400 22.62000 16.85800
337 125 3 -0.8476 24.11900 6.08200 1.55600
338 125 4 0.4238 23.42800 6.79800 1.65300
339 125 4 0.4238 23.67400 5.18600 1.56500
340 126 3 -0.8476 18.14900 2.86900 19.55000
341 126 4 0.4238 17.79300 1.98600 19.24300
342 126 4 0.4238 18.99600 3.07500 19.06000
343 127 3 -0.8476 13.87200 6.56200 13.61600
344 127 4 0.4238 14.45700 6.60000 14.42600
345 127 4 0.4238 13.44600 5.65900 13.55500
346 128 3 -0.8476 9.84100 9.39500 17.16400
347 128 4 0.4238 10.47300 10.16000 17.04500
348 128 4 0.4238 9.03800 9.70200 17.67600
349 129 3 -0.8476 4.79900 9.70300 9.70900
350 129 4 0.4238 5.28200 8.82900 9.75700
351 129 4 0.4238 5.20900 10.27200 8.99600
352 130 3 -0.8476 22.18100 1.98400 16.11300
353 130 4 0.4238 21.65500 1.56300 15.37400
354 130 4 0.4238 23.04600 2.33100 15.75100
355 131 3 -0.8476 2.15300 21.51300 2.31200
356 131 4 0.4238 3.01800 21.06800 2.54200
357 131 4 0.4238 1.86700 21.23300 1.39600
358 132 3 -0.8476 6.36600 8.74200 16.29600
359 132 4 0.4238 6.27900 7.76300 16.11300
360 132 4 0.4238 6.88400 9.17400 15.55800
361 133 3 -0.8476 14.34600 18.16300 6.74100
362 133 4 0.4238 14.33700 17.57100 5.93500
363 133 4 0.4238 14.93100 18.95500 6.56700
364 134 3 -0.8476 15.36400 23.01800 13.28000
365 134 4 0.4238 15.78000 23.29800 12.41500
366 134 4 0.4238 15.91200 23.36600 14.04100
367 135 3 -0.8476 13.65100 0.10500 11.85000
368 135 4 0.4238 13.94400 1.02000 11.57500
369 135 4 0.4238 14.34500 -0.56200 11.57800
370 136 3 -0.8476 10.83900 22.69700 20.03800
371 136 4 0.4238 10.87900 21.74100 20.32800
372 136 4 0.4238 9.91700 23.05400 20.19200
373 137 3 -0.8476 15.86400 6.14600 10.15900
374 137 4 0.4238 16.28000 6.05300 11.06300
375 137 4 0.4238 15.15900 6.85500 10.18800
376 138 3 -0.8476 23.11500 24.43900 3.63300
377 138 4 0.4238 23.60200 25.19200 4.07600
378 138 4 0.4238 23.08700 24.59500 2.64600
379 139 3 -0.8476 20.74500 12.41200 13.32500
380 139 4 0.4238 20.41900 11.83300 14.07300
381 139 4 0.4238 20.15900 12.28400 12.52500
382 140 3 -0.8476 20.40400 24.09500 3.56900
383 140 4 0.4238 21.39100 24.22000 3.67000
384 140 4 0.4238 20.12200 24.39900 2.65900
385 141 3 -0.8476 8.38900 24.45300 19.44700
386 141 4 0.4238 8.25900 25.02700 20.25600
387 141 4 0.4238 9.10700 24.84500 18.87200
388 142 3 -0.8476 7.10900 16.68700 4.38700
389 142 4 0.4238 7.76700 17.44000 4.41400
390 142 4 0.4238 6.50800 16.79900 3.59500
391 143 3 -0.8476 14.20000 19.35900 1.86000
392 143 4 0.4238 13.44800 18.98300 1.31800
393 143 4 0.4238 14.60200 20.13700 1.37700
394 144 3 -0.8476 7.82900 4.25300 3.07700
395 144 4 0.4238 7.91500 4.85700 2.28500
396 144 4 0.4238 8.73700 4.06200 3.45100
397 145 3 -0.8476 3.51400 21.01600 11.70400
398 145 4 0.4238 2.67300 20.48700 11.59400
399 145 4 0.4238 3.99000 21.07400 10.82700
400 146 3 -0.8476 20.43900 4.70400 16.25800
401 146 4 0.4238 20.75300 4.30600 15.39700
402 146 4 0.4238 20.55300 4.03800 16.99500
403 147 3 -0.8476 19.51700 12.80300 4.13400
404 147 4 0.4238 19.47400 12.16500 3.36500
405 147 4 0.4238 20.29800 13.41600 4.01500
406 148 3 -0.8476 24.51300 6.08300 15.61200
407 148 4 0.4238 24.19000 6.43300 16.49100
408 148 4 0.4238 24.42600 5.08700 15.59700
409 149 3 -0.8476 3.34400 16.05100 3.55100
410 149 4 0.4238 3.01900 15.11000 3.63700
411 149 4 0.4238 2.56100 16.67300 3.53100
412 150 3 -0.8476 21.64000 4.11300 20.66100
413 150 4 0.4238 22.44800 4.68800 20.53700
414 150 4 0.4238 21.86700 3.34300 21.25600
415 151 3 -0.8476 9.54400 14.76500 4.49600
416 151 4 0.4238 9.86000 14.79300 3.54700
417 151 4 0.4238 8.66000 15.22700 4.56700
418 152 3 -0.8476 24.68000 4.15700 6.71000
419 152 4 0.4238 24.39900 4.99100 7.18500
420 152 4 0.4238 24.59000 4.28900 5.72300
421 153 3 -0.8476 2.06200 8.75100 16.40700
422 153 4 0.4238 1.36600 8.28300 15.86200
423 153 4 0.4238 2.66900 8.07500 16.82500
424 154 3 -0.8476 20.48400 14.23600 17.46400
425 154 4 0.4238 19.70900 13.78900 17.01600
426 154 4 0.4238 20.39500 14.14300 18.45500
427 155 3 -0.8476 21.12100 11.55100 7.01600
428 155 4 0.4238 21.36200 12.21100 6.30500
429 155 4 0.4238 20.13800 11.36900 6.98300
430 156 3 -0.8476 4.36200 15.07800 13.21500
431 156 4 0.4238 4.32700 15.94900 13.70500
432 156 4 0.4238 3.43400 14.72500 13.09500
433 157 3 -0.8476 10.39000 12.34500 20.37400
434 157 4 0.4238 9.84100 12.39700 21.20800
435 157 4 0.4238 9.83500 11.97100 19.63100
436 158 3 -0.8476 5.71000 21.66000 15.21900
437 158 4 0.4238 6.45700 22.25100 14.91500
438 158 4 0.4238 5.65400 20.86000 14.62100
439 159 3 -0.8476 5.51400 6.93400 21.30400
440 159 4 0.4238 5.52300 6.72200 22.28200
441 159 4 0.4238 5.13600 6.15800 20.79900
442 160 3 -0.8476 12.59800 15.66900 8.89900
443 160 4 0.4238 12.63800 15.32700 7.96000
444 160 4 0.4238 13.42400 16.19700 9.09600
445 161 3 -0.8476 -0.00300 24.59700 9.19800
446 161 4 0.4238 -0.34100 25.10100 9.99300
447 161 4 0.4238 0.86600 24.15700 9.42700
448 162 3 -0.8476 14.39300 13.57200 10.08000
449 162 4 0.4238 15.04600 14.23100 9.70700
450 162 4 0.4238 14.06000 12.98100 9.34600
451 163 3 -0.8476 0.26000 20.52300 6.00700
452 163 4 0.4238 0.38000 20.73600 6.97600
453 163 4 0.4238 0.16200 19.53500 5.89200
454 164 3 -0.8476 0.55200 18.93500 22.65500
455 164 4 0.4238 1.18400 18.55200 23.32800
456 164 4 0.4238 1.07200 19.38900 21.93100
457 165 3 -0.8476 15.47400 9.95700 17.75900
458 165 4 0.4238 15.21500 10.60400 18.47600
459 165 4 0.4238 16.21600 9.37300 18.08900
460 166 3 -0.8476 10.95000 10.24500 24.29700
461 166 4 0.4238 10.88200 10.47400 25.26800
462 166 4 0.4238 11.90200 10.32800 24.00000
463 167 3 -0.8476 4.56400 20.79100 9.11600
464 167 4 0.4238 4.90900 19.87500 9.32000
465 167 4 0.4238 4.64400 20.96700 8.13500
466 168 3 -0.8476 13.67100 7.15300 3.44700
467 168 4 0.4238 13.93700 6.84400 4.36000
468 168 4 0.4238 14.46000 7.10300 2.83500
469 169 3 -0.8476 15.58400 16.38300 18.27100
470 169 4 0.4238 14.81000 16.49600 18.89400
471 169 4 0.4238 16.34000 16.96500 18.57000
472 170 3 -0.8476 22.62600 13.52500 0.59100
473 170 4 0.4238 23.32300 12.86600 0.30700
474 170 4 0.4238 23.02000 14.16200 1.25300
475 171 3 -0.8476 2.07800 12.66400 8.87900
476 171 4 0.4238 2.36000 13.49500 8.40000
477 171 4 0.4238 2.01800 11.90800 8.22800
478 172 3 -0.8476 24.98600 11.77700 0.41200
479 172 4 0.4238 25.35600 10.87200 0.20500
480 172 4 0.4238 25.30400 12.07000 1.31300
481 173 3 -0.8476 1.64400 4.51200 4.89100
482 173 4 0.4238 1.99200 4.91300 4.04400
483 173 4 0.4238 0.81000 3.99400 4.69600
484 174 3 -0.8476 18.88400 7.98800 0.63200
485 174 4 0.4238 18.75400 8.76800 0.02000
486 174 4 0.4238 18.44100 7.18100 0.24100
487 175 3 -0.8476 24.40300 20.69400 0.64200
488 175 4 0.4238 24.01000 21.52800 1.02900
489 175 4 0.4238 25.33800 20.58000 0.97800
490 176 3 -0.8476 22.61300 10.87900 3.11700
491 176 4 0.4238 23.57900 10.78800 3.36000
492 176 4 0.4238 22.11800 10.05800 3.40100
493 177 3 -0.8476 20.79200 2.98400 18.24600
494 177 4 0.4238 21.51900 2.48400 17.77600
495 177 4 0.4238 21.14100 3.34800 19.10900
496 178 3 -0.8476 6.79900 14.76600 1.09500
497 178 4 0.4238 7.02700 14.22500 1.90400
498 178 4 0.4238 6.29500 15.58400 1.37100
499 179 3 -0.8476 2.74800 2.76000 19.48200
500 179 4 0.4238 2.32800 1.99400 19.96800
501 179 4 0.4238 2.69400 2.59900 18.49700
502 180 3 -0.8476 13.46100 17.99000 13.18600
503 180 4 0.4238 14.03200 18.68600 13.62200
504 180 4 0.4238 13.92600 17.10600 13.22300
505 181 3 -0.8476 18.88800 16.32900 2.38900
506 181 4 0.4238 18.60300 17.28200 2.49800
507 181 4 0.4238 19.47900 16.06900 3.15200
508 182 3 -0.8476 11.70800 0.01400 5.62200
509 182 4 0.4238 12.04100 0.92100 5.87800
510 182 4 0.4238 11.02600 -0.29100 6.28600
511 183 3 -0.8476 12.59200 19.46600 24.14100
512 183 4 0.4238 12.03900 19.55800 24.96900
513 183 4 0.4238 12.94000 18.53000 24.07600
514 184 3 -0.8476 15.05700 16.73300 8.84200
515 184 4 0.4238 14.87700 17.51700 8.24700
516 184 4 0.4238 15.99600 16.41900 8.70400
517 185 3 -0.8476 15.22300 20.21300 13.67200
518 185 4 0.4238 14.98500 21.14900 13.41200
519 185 4 0.4238 15.63800 20.21500 14.58200
520 186 3 -0.8476 23.40900 17.75300 24.70300
521 186 4 0.4238 24.15000 18.24200 25.16400
522 186 4 0.4238 23.12300 18.26700 23.89400
523 187 3 -0.8476 15.55100 14.00100 7.40900
524 187 4 0.4238 14.72600 14.42800 7.03800
525 187 4 0.4238 16.35600 14.38500 6.95800
526 188 3 -0.8476 1.25600 23.17300 20.69100
527 188 4 0.4238 2.14100 23.58100 20.91400
528 188 4 0.4238 0.91200 23.56600 19.83900
529 189 3 -0.8476 11.56400 18.56600 7.53400
530 189 4 0.4238 12.53600 18.71100 7.34700
531 189 4 0.4238 11.44800 17.72000 8.05300
532 190 3 -0.8476 23.57400 14.82500 19.59700
533 190 4 0.4238 23.16400 14.75900 18.68700
534 190 4 0.4238 24.29600 14.13900 19.68700
535 191 3 -0.8476 8.48100 16.49100 19.33500
536 191 4 0.4238 8.29000 16.29500 18.37300
537 191 4 0.4238 7.96200 15.86100 19.91200
538 192 3 -0.8476 14.62500 18.46400 16.75900
539 192 4 0.4238 15.06200 17.70500 17.24100
540 192 4 0.4238 15.32700 19.06500 16.37700
541 193 3 -0.8476 24.00500 17.31900 20.33500
542 193 4 0.4238 24.98300 17.35300 20.53800
543 193 4 0.4238 23.76500 16.40700 20.00200
544 194 3 -0.8476 4.86900 14.45800 21.73500
545 194 4 0.4238 4.68200 13.47600 21.72000
546 194 4 0.4238 4.21400 14.93100 21.14700
547 195 3 -0.8476 5.67700 16.11800 17.68100
548 195 4 0.4238 5.02000 15.36600 17.74400
549 195 4 0.4238 6.28100 15.96700 16.89800
550 196 3 -0.8476 17.54000 6.32600 7.68000
551 196 4 0.4238 16.90300 6.34300 8.45100
552 196 4 0.4238 17.68900 7.25800 7.35100
553 197 3 -0.8476 20.46200 13.87500 20.10100
554 197 4 0.4238 20.89700 13.01700 20.37500
555 197 4 0.4238 20.46300 14.51100 20.87300
556 198 3 -0.8476 4.75400 22.34800 17.64100
557 198 4 0.4238 3.78200 22.57500 17.57800
558 198 4 0.4238 5.06500 21.96900 16.77000
559 199 3 -0.8476 0.54000 16.66900 19.47300
560 199 4 0.4238 0.55800 17.62600 19.18200
561 199 4 0.4238 0.13800 16.60600 20.38600
562 200 3 -0.8476 19.72900 21.06700 20.60800
563 200 4 0.4238 18.77300 20.77400 20.61000
564 200 4 0.4238 20.24700 20.50800 19.96000
565 201 3 -0.8476 5.28000 11.39200 16.85700
566 201 4 0.4238 5.43900 11.76700 15.94400
567 201 4 0.4238 5.18800 10.39800 16.79800
568 202 3 -0.8476 12.83700 6.43600 8.12300
569 202 4 0.4238 11.95300 6.13500 8.48000
570 202 4 0.4238 13.34300 6.91300 8.84200
571 203 3 -0.8476 7.33800 1.91400 24.71400
572 203 4 0.4238 6.39200 2.21500 24.83000
573 203 4 0.4238 7.36700 1.14500 24.07500
574 204 3 -0.8476 22.19600 13.32700 5.37500
575 204 4 0.4238 22.57500 12.65100 4.74300
576 204 4 0.4238 22.23500 14.23400 4.95700
577 205 3 -0.8476 22.79600 18.68100 1.92700
578 205 4 0.4238 23.39100 18.64200 2.73000
579 205 4 0.4238 23.29300 19.09700 1.16500
580 206 3 -0.8476 17.45400 8.16400 14.99600
581 206 4 0.4238 16.58000 8.63200 14.86400
582 206 4 0.4238 18.18700 8.84100 15.06900
583 207 3 -0.8476 14.86600 10.43900 5.18500
584 207 4 0.4238 14.12000 10.18700 4.56800
585 207 4 0.4238 15.47500 11.08500 4.72400
586 208 3 -0.8476 1.45200 10.01800 10.80400
587 208 4 0.4238 1.29800 10.89800 11.25300
588 208 4 0.4238 2.38200 9.98700 10.43900
589 209 3 -0.8476 17.71800 5.52800 16.34900
590 209 4 0.4238 17.83300 6.17600 15.59600
591 209 4 0.4238 18.56600 5.01500 16.48000
592 210 3 -0.8476 2.05400 21.89600 13.95000
593 210 4 0.4238 1.51100 22.72000 13.78900
594 210 4 0.4238 1.81300 21.20100 13.27200
595 211 3 -0.8476 22.59800 8.32600 12.46800
596 211 4 0.4238 22.44200 8.85200 13.30400
597 211 4 0.4238 23.03500 8.91000 11.78400
598 212 3 -0.8476 3.97500 1.64300 7.88400
599 212 4 0.4238 4.59600 1.83400 8.64400
600 212 4 0.4238 3.93700 2.43700 7.27700
601 213 3 -0.8476 19.05600 11.67600 11.09800
602 213 4 0.4238 19.52400 10.85300 10.77600
603 213 4 0.4238 18.06800 11.51800 11.09900
604 214 3 -0.8476 7.01300 23.09700 7.06500
605 214 4 0.4238 6.55500 23.93700 6.77400
606 214 4 0.4238 6.92100 22.99300 8.05500
607 215 3 -0.8476 22.59300 23.28300 7.06700
608 215 4 0.4238 22.51900 24.23700 6.77400
609 215 4 0.4238 22.32100 23.20700 8.02600
610 216 3 -0.8476 11.53000 3.51900 18.92900
611 216 4 0.4238 11.28900 3.87700 19.83100
612 216 4 0.4238 12.44900 3.12500 18.96100
613 217 3 -0.8476 16.22100 2.30800 23.23900
614 217 4 0.4238 15.37800 2.55600 23.71600
615 217 4 0.4238 15.99900 1.96200 22.32700
616 218 3 -0.8476 2.78100 15.15400 19.89800
617 218 4 0.4238 1.99500 15.74900 19.72900
618 218 4 0.4238 2.96200 14.60200 19.08400
619 219 3 -0.8476 15.41900 23.42700 24.46400
620 219 4 0.4238 15.70100 24.30900 24.08600
621 219 4 0.4238 14.77400 22.98800 23.83900
622 220 3 -0.8476 16.29300 10.72300 15.32900
623 220 4 0.4238 15.69800 11.47100 15.03600
624 220 4 0.4238 15.92000 10.30500 16.15700
625 221 3 -0.8476 18.85900 2.53900 1.01700
626 221 4 0.4238 19.46000 3.15600 0.50800
627 221 4 0.4238 18.78100 2.85600 1.96200
628 222 3 -0.8476 17.69700 23.46100 7.11900
629 222 4 0.4238 17.70900 23.01900 8.01600
630 222 4 0.4238 17.66800 22.76300 6.40400
631 223 3 -0.8476 10.90500 14.32200 1.52700
632 223 4 0.4238 10.28600 15.07700 1.30900
633 223 4 0.4238 11.84200 14.66700 1.59100
634 224 3 -0.8476 14.27700 3.97200 5.50500
635 224 4 0.4238 14.44900 4.89200 5.85800
636 224 4 0.4238 13.91100 3.39800 6.23800
637 225 3 -0.8476 8.20300 2.97100 17.75700
638 225 4 0.4238 8.91400 3.65600 17.91300
639 225 4 0.4238 8.03700 2.87900 16.77500
640 226 3 -0.8476 12.44900 18.75900 19.84700
641 226 4 0.4238 12.34100 18.70900 18.85400
642 226 4 0.4238 11.83400 19.45700 20.21500
643 227 3 -0.8476 21.95900 24.55300 14.94200
644 227 4 0.4238 22.37200 24.52600 14.03100
645 227 4 0.4238 22.39100 23.86500 15.52500
646 228 3 -0.8476 23.10600 11.49300 23.46700
647 228 4 0.4238 23.08700 12.35200 23.97800
648 228 4 0.4238 22.38800 11.50200 22.77100
649 229 3 -0.8476 3.15300 10.11600 3.96200
650 229 4 0.4238 3.84000 10.48700 3.33800
651 229 4 0.4238 2.28900 9.99300 3.47300
652 230 3 -0.8476 17.86500 0.21600 18.53800
653 230 4 0.4238 17.62100 0.30700 17.57300
654 230 4 0.4238 18.64600 -0.40200 18.62800
655 231 3 -0.8476 4.62300 21.68500 6.35500
656 231 4 0.4238 5.28200 22.36300 6.67900
657 231 4 0.4238 3.79100 22.14800 6.05100
658 232 3 -0.8476 2.87300 7.45400 19.33100
659 232 4 0.4238 2.29000 6.83500 18.80500
660 232 4 0.4238 3.08200 7.04200 20.21800
661 233 3 -0.8476 19.66700 18.45100 12.98200
662 233 4 0.4238 18.79800 18.84100 12.67600
663 233 4 0.4238 19.89100 17.65400 12.42100
664 234 3 -0.8476 4.18200 23.49000 12.51200
665 234 4 0.4238 4.39800 23.23100 13.45400
666 234 4 0.4238 3.79800 22.70300 12.03000
667 235 3 -0.8476 7.62100 23.11100 22.14200
668 235 4 0.4238 6.93100 22.73000 21.52700
669 235 4 0.4238 7.64800 24.10500 22.03600
670 236 3 -0.8476 1.55700 7.61900 11.83000
671 236 4 0.4238 1.53700 8.48100 11.32400
672 236 4 0.4238 2.46700 7.21100 11.75700
673 237 3 -0.8476 3.18100 1.67800 23.18700
674 237 4 0.4238 3.89700 1.03500 23.46000
675 237 4 0.4238 3.50100 2.22500 22.41300
676 238 3 -0.8476 0.17700 15.16400 23.93400
677 238 4 0.4238 -0.38600 14.37900 24.19300
678 238 4 0.4238 1.12000 14.86500 23.78800
679 239 3 -0.8476 6.78600 19.06900 16.79700
680 239 4 0.4238 5.84800 18.83700 17.05400
681 239 4 0.4238 7.02500 19.96200 17.17900
682 240 3 -0.8476 17.14700 20.06200 20.60800
683 240 4 0.4238 17.12800 19.37700 19.88000
684 240 4 0.4238 16.85300 19.64400 21.46700
685 241 3 -0.8476 10.98600 0.92400 11.29500
686 241 4 0.4238 11.97900 0.83600 11.36600
687 241 4 0.4238 10.56900 0.71200 12.17900
688 242 3 -0.8476 12.32100 0.50600 0.84200
689 242 4 0.4238 11.52200 0.37700 0.25400
690 242 4 0.4238 12.19100 0.00300 1.69600
691 243 3 -0.8476 12.94300 9.72400 0.49600
692 243 4 0.4238 12.67600 10.60100 0.09700
693 243 4 0.4238 12.36400 8.99900 0.12500
694 244 3 -0.8476 21.55600 17.52700 17.56000
695 244 4 0.4238 22.53300 17.51200 17.77600
696 244 4 0.4238 21.41000 17.13800 16.65000
697 245 3 -0.8476 16.21300 3.90700 18.06000
698 245 4 0.4238 16.90400 3.46800 18.63400